/*--------------------------------*- C++ -*----------------------------------*\
| =========                 |                                                 |
| \\      /  F ield         | OpenFOAM: The Open Source CFD Toolbox           |
|  \\    /   O peration     | Version:  2.1.1                                 |
|   \\  /    A nd           | Web:      www.OpenFOAM.org                      |
|    \\/     M anipulation  |                                                 |
\*---------------------------------------------------------------------------*/
FoamFile
{
    version     2.0;
    format      ascii;
    class       volScalarField;
    object      T;
}
// * * * * * * * * * * * * * * * * * * * * * * * * * * * * * * * * * * * * * //

dimensions      [0 0 0 1 0 0 0];

internalField   uniform 0;

boundaryField
{
	Inlet
	{
        type    		fixedValue;
        value   		uniform 0;
	}	
	
	Outlet
	{
        type            inletOutlet;
        inletValue      uniform 0;
        value           uniform 0;
    }
		
	"(Ground|Building)"
	{
		type			zeroGradient;
	}
	
	"(Paral|Roof)"
	{
		type			symmetryPlane;
	}
}

// ************************************************************************* //
